 StartTime:50 EndTime: 300 Range: 50000000 CostTradeOff: 100.0 SelectTargets when Idle: true
# Time  NumBuildings  NumBurining  numOnceBurned  numDestroyed  totalAreaDestroyed violatedConstraints
51 734 64 64 0 0.0 9
52 734 67 67 0 0.0 10
53 734 70 70 0 0.0 10
54 734 73 73 0 0.0 18
55 734 77 77 0 0.0 5
56 734 80 80 0 0.0 12
57 734 83 83 0 0.0 10
58 734 90 90 0 0.0 16
59 734 92 93 1 0.037 13
60 734 95 96 1 0.042 17
61 734 97 99 2 0.204 26
62 734 104 104 0 0.0 6
63 734 103 104 1 0.16 13
64 734 104 106 2 0.228 8
65 734 104 108 4 0.432 8
66 734 110 113 3 0.39 19
67 734 115 116 1 0.162 11
68 734 117 119 2 0.259 15
69 734 116 119 3 0.525 20
70 734 118 122 4 0.448 7
71 734 117 122 5 0.516 7
72 734 117 122 5 0.655 9
73 734 123 127 4 0.558 24
74 734 129 133 4 0.558 7
75 734 131 135 4 0.558 12
76 734 136 139 3 0.515 16
77 734 138 142 4 0.544 10
78 734 141 146 5 0.692 9
79 734 142 147 5 0.909 15
80 734 143 148 5 0.909 7
81 734 145 151 6 1.002 9
82 734 151 157 6 1.002 14
83 734 154 162 8 1.204 16
84 734 155 163 8 1.204 14
85 734 154 164 10 1.421 5
86 734 156 166 10 1.421 6
87 734 157 168 11 1.518 4
88 734 160 174 14 1.831 20
89 734 159 176 17 1.82 13
90 734 162 179 17 1.82 14
91 734 162 182 20 2.059 14
92 734 163 182 19 2.182 7
93 734 167 186 19 1.992 6
94 734 170 190 20 2.244 9
95 734 173 195 22 2.325 10
96 734 177 199 22 2.266 9
97 734 175 199 24 2.353 9
98 734 176 201 25 2.39 9
99 734 176 202 26 2.54 17
100 734 175 204 29 3.077 15
101 734 177 206 29 3.079 11
102 734 179 207 28 2.989 14
103 734 178 210 32 3.186 7
104 734 179 214 35 3.354 18
105 734 179 216 37 3.407 25
106 734 179 219 40 3.541 20
107 734 180 222 42 3.808 10
108 734 184 227 43 3.92 14
109 734 189 232 43 3.907 20
110 734 189 234 45 4.047 14
111 734 188 236 48 4.311 14
112 734 189 238 49 4.357 16
113 734 187 238 51 4.551 74
114 734 183 241 58 5.048 44
115 734 183 242 59 5.263 58
116 734 182 243 61 5.567 44
117 734 186 246 60 5.528 26
118 734 188 250 62 5.679 29
119 734 184 252 68 6.002 27
120 734 187 258 71 6.108 35
121 734 191 261 70 6.019 11
122 734 190 263 73 6.171 18
123 734 195 267 72 6.131 19
124 734 197 269 72 6.178 9
125 734 198 271 73 6.324 8
126 734 201 275 74 6.414 8
127 734 197 276 79 6.756 8
128 734 198 279 81 6.857 8
129 734 198 286 88 7.254 11
130 734 198 288 90 7.336 14
131 734 197 290 93 7.494 10
132 734 194 291 97 7.827 13
133 734 194 293 99 8.071 14
134 734 191 294 103 8.272 14
135 734 190 295 105 8.347 17
136 734 189 297 108 8.398 16
137 734 192 298 106 8.385 10
138 734 193 300 107 8.454 17
139 734 197 302 105 8.395 18
140 734 194 303 109 8.595 20
141 734 193 304 111 8.713 12
142 734 191 305 114 8.965 18
143 734 191 307 116 9.077 15
144 734 189 308 119 9.267 16
145 734 186 310 124 9.727 13
146 734 187 312 125 9.846 19
147 734 187 312 125 9.846 19
148 734 185 313 128 9.981 21
149 734 185 314 129 10.04 17
150 734 185 315 130 10.155 24
151 734 188 319 131 10.185 26
152 734 187 321 134 10.438 25
153 734 186 322 136 10.513 22
154 734 187 323 136 10.513 24
155 734 182 324 142 10.807 13
156 734 177 325 148 11.088 12
157 734 178 326 148 11.05 12
158 734 180 329 149 11.096 25
159 734 177 331 154 11.352 20
160 734 179 334 155 11.542 17
161 734 180 339 159 12.051 12
162 734 178 340 162 12.492 12
163 734 173 340 167 12.812 9
164 734 173 343 170 12.753 11
165 734 170 344 174 13.04 16
166 734 171 345 174 13.102 14
167 734 169 346 177 13.268 14
168 734 165 347 182 13.517 8
169 734 164 348 184 13.74 8
170 734 167 350 183 13.792 24
171 734 165 351 186 13.719 7
172 734 169 356 187 13.738 14
173 734 170 357 187 13.869 25
174 734 170 359 189 13.958 13
175 734 170 361 191 14.046 13
176 734 170 365 195 14.39 33
177 734 165 365 200 14.787 14
178 734 167 368 201 14.88 13
179 734 167 369 202 14.925 19
180 734 166 371 205 15.106 44
181 734 165 373 208 15.257 9
182 734 168 377 209 15.357 23
183 734 167 377 210 15.562 44
184 734 168 380 212 15.624 47
185 734 165 381 216 15.928 31
186 734 166 385 219 16.149 27
187 734 166 388 222 16.299 21
188 734 167 391 224 16.677 31
189 734 165 393 228 17.061 39
190 734 164 395 231 17.155 39
191 734 164 399 235 17.31 25
192 734 166 403 237 17.45 23
193 734 165 405 240 17.638 30
194 734 164 408 244 17.883 32
195 734 165 409 244 17.921 12
196 734 159 410 251 18.389 83
197 734 160 412 252 18.423 29
198 734 164 416 252 18.423 61
199 734 163 416 253 18.458 36
200 734 167 423 256 18.614 30
201 734 169 427 258 18.804 22
202 734 171 431 260 18.89 52
203 734 172 434 262 19.119 15
204 734 169 436 267 19.746 31
205 734 169 437 268 19.844 40
206 734 171 441 270 19.93 13
207 734 169 441 272 20.073 16
208 734 168 444 276 20.287 14
209 734 168 448 280 20.742 12
210 734 170 451 281 20.733 22
211 734 170 453 283 20.989 16
212 734 170 456 286 21.131 22
213 734 168 459 291 21.448 17
214 734 169 464 295 21.85 23
215 734 171 468 297 21.958 19
216 734 170 470 300 22.292 18
217 734 169 473 304 22.52 25
218 734 169 475 306 22.845 35
219 734 170 477 307 23.079 25
220 734 170 478 308 23.145 29
221 734 171 480 309 23.189 42
222 734 174 483 309 23.189 8
223 734 176 486 310 23.335 17
224 734 179 489 310 23.382 37
225 734 180 491 311 23.422 43
226 734 181 494 313 23.9 26
227 734 184 499 315 24.014 34
228 734 181 500 319 24.458 16
229 734 182 501 319 24.458 46
230 734 185 503 318 24.408 49
231 734 182 504 322 24.833 32
232 734 183 507 324 24.98 32
233 734 183 510 327 25.138 19
234 734 183 513 330 25.394 27
235 734 183 516 333 25.755 45
236 734 181 518 337 26.154 37
237 734 184 520 336 26.114 29
238 734 184 523 339 26.51 43
239 734 183 524 341 26.576 13
240 734 186 530 344 26.913 15
241 734 188 533 345 26.933 41
242 734 183 534 351 27.444 65
243 734 187 539 352 27.512 10
244 734 186 540 354 27.776 18
245 734 186 541 355 27.931 9
246 734 186 542 356 28.039 28
247 734 189 546 357 28.119 27
248 734 187 547 360 28.494 35
249 734 186 551 365 28.702 18
250 734 184 553 369 28.982 14
251 734 188 557 369 29.022 17
252 734 189 560 371 29.157 10
253 734 187 562 375 29.34 13
254 734 185 562 377 29.411 14
255 734 187 565 378 29.525 11
256 734 185 565 380 29.663 11
257 734 186 566 380 29.928 10
258 734 183 567 384 30.135 15
259 734 182 569 387 30.434 14
260 734 178 570 392 31.413 10
261 734 182 575 393 31.463 11
262 734 178 575 397 31.678 13
263 734 179 580 401 31.979 13
264 734 178 580 402 32.117 13
265 734 177 583 406 32.438 13
266 734 176 586 410 32.838 26
267 734 174 587 413 33.053 47
268 734 171 588 417 33.429 19
269 734 171 589 418 33.889 30
270 734 170 593 423 34.248 50
271 734 170 595 425 34.251 15
272 734 167 595 428 34.377 17
273 734 169 597 428 34.443 13
274 734 168 598 430 34.777 17
275 734 166 598 432 34.943 38
276 734 161 598 437 35.284 24
277 734 159 600 441 35.615 34
278 734 159 602 443 35.768 27
279 734 155 602 447 36.07 21
280 734 156 604 448 36.155 36
281 734 152 604 452 36.547 39
282 734 151 604 453 36.583 29
283 734 152 607 455 36.712 33
284 734 156 611 455 36.735 27
285 734 155 613 458 36.974 31
286 734 152 613 461 37.234 25
287 734 150 614 464 37.355 36
288 734 150 617 467 37.526 39
289 734 150 617 467 37.576 25
290 734 152 623 471 37.883 16
291 734 149 624 475 38.165 26
292 734 145 624 479 38.534 31
293 734 144 625 481 38.688 13
294 734 136 625 489 39.36 4
295 734 134 625 491 39.454 28
296 734 134 626 492 39.651 11
297 734 134 627 493 39.699 33
298 734 134 628 494 39.759 15
299 734 134 632 498 40.083 18
